# vtk DataFile Version 4.0
XFEM Outputs
ASCII
DATASET UNSTRUCTURED_GRID

POINTS 57 float
0.010430900000000 0.504026000000000 0.000000000000000
0.072074400000000 0.502990000000000 0.000000000000000
0.200024000000000 0.475630000000000 0.000000000000000
0.340328000000000 0.385036000000000 0.000000000000000
0.430555000000000 0.275677000000000 0.000000000000000
0.487234000000000 0.162680000000000 0.000000000000000
0.511436000000000 0.064233600000000 0.000000000000000
0.508278000000000 0.006863670000000 0.000000000000000
0.011066600000000 0.546032000000000 0.000000000000000
0.075512100000000 0.544949000000000 0.000000000000000
0.213217000000000 0.520226000000000 0.000000000000000
0.364985000000000 0.415434000000000 0.000000000000000
0.462318000000000 0.300353000000000 0.000000000000000
0.529085000000000 0.171780000000000 0.000000000000000
0.549084000000000 0.073404800000000 0.000000000000000
0.551735000000000 0.004732750000000 0.000000000000000
0.009561650000000 0.628691000000000 0.000000000000000
0.078261100000000 0.624735000000000 0.000000000000000
0.241312000000000 0.592583000000000 0.000000000000000
0.418501000000000 0.476160000000000 0.000000000000000
0.513594000000000 0.330304000000000 0.000000000000000
0.583341000000000 0.191877000000000 0.000000000000000
0.609199000000000 0.079397200000000 0.000000000000000
0.610551000000000 0.005144810000000 0.000000000000000
0.581375000000000 0.376784000000000 0.000000000000000
0.665566000000000 0.214304000000000 0.000000000000000
0.693054000000000 0.089192400000000 0.000000000000000
0.691808000000000 0.003779140000000 0.000000000000000
0.000312000000000 0.752096000000000 0.000000000000000
0.097005700000000 0.749070000000000 0.000000000000000
0.288152000000000 0.712244000000000 0.000000000000000
0.497999000000000 0.571462000000000 0.000000000000000
0.645310000000000 0.403720000000000 0.000000000000000
0.742110000000000 0.241029000000000 0.000000000000000
0.774133000000000 0.097633600000000 0.000000000000000
0.775867000000000 0.002366380000000 0.000000000000000
0.005148730000000 0.871062000000000 0.000000000000000
0.111624000000000 0.869272000000000 0.000000000000000
0.332268000000000 0.827749000000000 0.000000000000000
0.629996000000000 0.629468000000000 0.000000000000000
0.827288000000000 0.332034000000000 0.000000000000000
0.871998000000000 0.107193000000000 0.000000000000000
0.875312000000000 0.002095600000000 0.000000000000000
0.002217250000000 0.955145000000000 0.000000000000000
0.119926000000000 0.951766000000000 0.000000000000000
0.363113000000000 0.902861000000000 0.000000000000000
0.689141000000000 0.688698000000000 0.000000000000000
0.908035000000000 0.358688000000000 0.000000000000000
0.954452000000000 0.117012000000000 0.000000000000000
0.956569000000000 0.000730000000000 0.000000000000000
0.004330510000000 0.992924000000000 0.000000000000000
0.121988000000000 0.992348000000000 0.000000000000000
0.376409000000000 0.941853000000000 0.000000000000000
0.719427000000000 0.717601000000000 0.000000000000000
0.946957000000000 0.374841000000000 0.000000000000000
0.996431000000000 0.119108000000000 0.000000000000000
1.001400000000000 -0.000023500000000 0.000000000000000

CELLS 42 212
4 0 1 9 8
4 8 9 17 16
4 16 17 29 28
4 28 29 37 36
4 36 37 44 43
4 43 44 51 50
4 1 2 10 9
4 9 10 18 17
4 17 18 30 29
4 29 30 38 37
4 37 38 45 44
4 44 45 52 51
4 2 3 11 10
4 10 11 19 18
4 18 19 31 30
4 30 31 39 38
4 38 39 46 45
4 45 46 53 52
4 3 4 12 11
4 11 12 20 19
5 19 20 24 32 31
4 20 21 25 24
4 24 25 33 32
5 31 32 33 40 39
4 39 40 47 46
4 46 47 54 53
4 5 6 14 13
4 13 14 22 21
4 21 22 26 25
4 25 26 34 33
4 33 34 41 40
4 40 41 48 47
4 47 48 55 54
4 6 7 15 14
4 14 15 23 22
4 22 23 27 26
4 26 27 35 34
4 34 35 42 41
4 41 42 49 48
4 48 49 56 55
4 4 5 13 12
4 12 13 21 20

CELL_TYPES 42
7
7
7
7
7
7
7
7
7
7
7
7
7
7
7
7
7
7
7
7
7
7
7
7
7
7
7
7
7
7
7
7
7
7
7
7
7
7
7
7
7
7

POINT_DATA 57

SCALARS Node_Flags float 1
LOOKUP_TABLE default
4
3
3
3
3
3
3
4
3
0
0
0
0
0
0
3
3
0
0
0
0
0
0
3
1
0
0
3
3
0
0
0
5
0
0
3
3
0
0
0
0
0
3
3
0
0
0
0
0
3
4
3
3
3
3
3
4
